Answer the following multiple choice question, selecting from the answer A through to J. After thinking, reply directly with your answer. 

The last character of your response must be the letter you have chosen.

Question:

You are given that the ionization energy of a hydrogen atom is 13.527eV, calculate the second ionization energy of a helium atom. The general equation for the lines in the emis-sion spectra of one electron system such as H, He^+ , Li^2+ and Be^3+ is given as ѵ= Z^2 R_H{(1/n^2_1) - (1/n^2_2)} whereѵ= the wave numbers of emission lines and Z is the nuclear charge of the atom concerned.

Options:

A: 13.527eV
B: 162.324eV
C: 21.654eV
D: 108.216eV
E: 40.581eV
F: 54.108eV
G: 30.081eV
H: 72.144eV
I: 96.192eV
J: 27.054eV

Answer:
    <think>
<think>
Okay, so I've got this question about the ionization energy of a helium atom, and I'm a bit new to this, but I'll try to think it through step by step. Let me start by reading the question again.

The question says that the ionization energy of a hydrogen atom is 13.527 eV, and we need to calculate the second ionization energy of a helium atom. The given formula is for emission lines in emission spectra, which is υ = Z² R_H [(1/n₁²) - (1/n₂²)]. I think υ here is the energy emitted during transitions.

Wait, so for the first ionization of hydrogen, it's straightforward. But for helium, which is He⁺, the second ionization energy would involve removing an electron from He⁺ to form He²⁺.

Hmm, perhaps I should think about this using the Rydberg formula. The formula provided here is for the emission lines. Let me recall what the Rydberg constant R_H is. I think R_H for hydrogen is approximately 13.6 eV. Oh wait, wait—no, wait. No, wait a second. The ionization energy of hydrogen is 13.6 eV, which I think is the ground state energy. So R_H is 13.6 eV.

But the formula given is υ = Z² R_H [1/n₁² - 1/n₂²]. So for the second ionization of He, which is He²+, the Z would be 2, because He²+ has a charge of +2. So Z is 2.

The initial state (ground state) for He²+ would be n₁ = 2, because He²+ is the first ionization product of He. Then, when it ionizes further, the second step would be to get to n₂ = 3 because He²+ → He³+ → He⁴+? Wait, no: He is He⁺ with one proton. So He²+ has lost two electrons, so its first ionization would be to He⁺, which is He with one proton and one electron (so Z=2, but wait, wait, no—wait, He is He⁺, so losing the first electron would make it He⁺ (Z=2) and then the second ionization would lose another electron, making it He²+ (Z=2 again). So the ground state of He²+ would be n=2.

Wait, no. Let me clarify. Helium has atomic number 2. So He has Z=2. The neutral helium atom is He⁺ with Z=2, because it's losing an electron. So the first ionization energy of He⁺ is to get to He²+, which is Z=2 again. So when we talk about the second ionization energy for He, we're removing an electron from He⁺ to get He²+, right?

Wait, no. Wait, the second ionization energy is the energy required to remove an electron from He²+ to get He³+ (probably not, but probably just to get He²+). Wait, no—second ionization is the second step. So if He is He²+ (since it's neutral), the first ionization would take it to He⁺ (He with Z=2), and then the second would take it to He²+ (Z=2 again). So for the second ionization energy, we're considering the transition from n=2 to n=3? Or from n=2 to n=1, but that's the first ionization. Wait, no, the second ionization is the second step, so from He²+ to He³+.

Wait, I'm getting a bit confused. Let me think again. Let's consider the process: neutral helium (He) → He+ → He++. So the second ionization energy is the energy required to remove another electron from He+ to form He++.

So the initial state for He+ is n=1 (ground state), and the final state for He++ is n=2, I think. So the transition is from n=1 to n=2.

Wait, but the formula given is υ = Z² R_H [1/n₁² - 1/n₂²]. So for the second ionization, the initial state (n₁) is 1 (ground state) and the final state (n₂) is 2. So we plug in n₁=1, n₂=2, Z=2.

So let's compute that. R_H is 13.6 eV.

So υ = (2)^2 * 13.6 eV * [1/(1)^2 - 1/(2)^2] = 4 * 13.6 eV * [1 - 1/4] = 4 * 13.6 eV * (3/4).

Compute that: 4 * (3/4) = 3. So 13.6 eV * 3 = 40.8 eV. So the energy is 40.8 eV.

Wait, but wait, the options are given, and one of the options is E:40.581eV, which is approximately 40.581eV. So 40.8 is close but not exact. Hmmm. Maybe I made a mistake in the formula.

Wait, the formula is υ = Z² R_H [1/n₁² - 1/n₂²]. So Z is the nuclear charge. For He++, the charge is +2, so Z=2. So that part is correct.

n₁ is 1, n₂ is 2.

So 13.6 eV * Z² * (1 - 1/4) = 13.6 * 4 * (3/4) = 13.6 * 3 = 40.8 eV.

But none of the options have 40.8. Let me look at the options again.

Options are:

A:13.527eV

B:162.3eV

C:21.654

D:108.216

E:40.581eV

F:54.108eV

G:30.081eV

H:72.144eV

I:96.192eV

J:27.054eV

So E is 40.581 eV. Hmm, so my calculation gives 40.8, but it's option E which is 40.581. So perhaps I made a mistake in the calculation.

Wait, wait. Maybe the formula is supposed to be υ = - (Z² R_H (1/n₁² - 1/n₂²)) ), but I thought the formula is υ=Z² R_H [1/n₁² - 1/n₂²]. But perhaps the Rydberg formula is given as υ = E_n1 - E_n2, considering that the emitted photon's energy is E_n1 - E_n2, which is positive.

Wait, the Rydberg formula for emission lines is the energy difference between two states. So for the transition from n₁ to n₂, the energy emitted is E = E_n1 - E_n2.

The energy levels for hydrogen-like atoms are given by E_n = - R_H * Z² / n².

So E_n1 is - R_H * Z² / (1)^2 = - R_H Z².

E_n2 is - R_H Z²/(2)^2 = - R_H Z²/4.

So the energy difference is E_n1 - E_n2 = (- R_H Z²) - (- R_H Z²/4) ) = (- R_H Z²) + (R_H Z² /4 ) = R_H Z² ( -1 + 1/4 ) = R_H Z² (-3/4).

But that would give a negative value, which would match the emission (since the energy is being emitted, so the difference is negative). So the actual energy emitted is the absolute value, which is 3/4 R_H Z².

Wait, wait. Let me compute it properly.

E_n is the energy of the nth level. For He++, Z=2.

E_1 (n=1) = - R_H (2)^2 / (1)^2 = -4 R_H.

E_2 (n=2) = - R_H (4) / (4) = - R_H.

So the energy difference for the transition from n=1 to n=2 is E_1 - E_2 = (-4 R_H) - (- R_H) ) = (-4 R_H) + R_H = -3 R_H. But since energy is emitted, the absolute value is 3 R_H.

Wait, but this contradicts the earlier calculation. I'm getting a discrepancy here.

In the first approach, using the Rydberg formula, I had 40.8 eV. In the second approach, using the energy levels, I get 3 * R_H = 3 *13.6 =40.8 eV. So that matches. So the second ionization energy of He is 40.8 eV, but the given option E is 40.581 eV. Hmm. That's 40.581, which is approximately 40.581, which is not exactly 40.8. So perhaps I made a mistake in the formula.

Wait, perhaps I forgot that the Rydberg constant R_H is 13.6 eV for hydrogen, but when Z is 2 for He++, the Rydberg constant for He++ is different. Wait, no, R_H is a constant. Wait, the Rydberg constant R_H is the same for all hydrogen-like atoms. So for He++, Z=2, so R_H for He++ would be Z² * R_H_hydrogen. So the Rydberg constant for He++ is 4 * 13.6 eV = 54.4 eV.

Wait, but in the formula for emission lines, the Rydberg constant R_H is 13.6 eV. So when calculating, I should use the Rydberg constant as given.

Wait, let's go back. The formula given is υ = Z² R_H (1/n₁² - 1/n₂²). So Z in that formula is the nuclear charge of the atom. So for He++, Z=2. So that formula uses R_H as given (13.6 eV). So when we plug in, as before, 4 * 13.6 * (3/4) = 40.8 eV.

But the options don't have that. The closest is option E:40.581 eV. Hmm. That's 40.581, which is close to 40.8. Maybe the initial assumption about the Rydberg constant is incorrect.

Wait, I thought R_H is 13.6 eV, but perhaps that's for hydrogen (Z=1). Let me confirm. The Rydberg constant R_H is approximately 13.6 eV for hydrogen. But for He++, which is Z=2, the Rydberg constant would be Z² * R_H =4*13.6=54.4 eV. Wait, but that's for the energy levels. However, in the formula given, the Rydberg constant is 13.6 eV, so the Z² would be required. So in the formula, we're using R_H =13.6 eV, so in the calculation, for He++, Z=2, so Z²=4, so 4 *13.6 * (3/4) = 13.6 *3 =40.8 eV. So that's the same as before. So why isn't option E matching?

Wait, looking at the options again, perhaps the options are not precise. Alternatively, perhaps the initial step isn't using the correct Rydberg constant.

Wait another thought: The second ionization energy of a He atom. Helium has Z=2, neutral. The first ionization energy of He is 27.2 eV (since it's 2 * 13.6 eV). So when it loses an electron to become He+, the energy is 13.6 *2=27.2 eV. Then, the second ionization energy would be the energy required to remove another electron from He+ to He²+.

Wait, but wait, He²+ has a charge of +2. So the energy to remove an electron from He²+ (n=1) to He³+ (n=2) would be calculated as:

Z=2, n₁=1, n₂=2.

So υ = Z² R_H (1/1² - 1/2²) * (1 eV) → 4 *13.6 * (1 - 0.25) = 4 *13.6 * 0.75 = 4 * 9.6 =38.4 eV.

Wait, that's 38.4 eV, but that's not any of the options. Hmm. But the options don't have 38.4 eV. So perhaps I'm missing something.

Wait, perhaps I should think that the second ionization energy is the energy required to remove an electron from He⁺ to He²+. So He⁺ has Z=2, and if it's in n=1 (ground state), the energy would be E_n1 = - (2^2) * R_H * (1)^2 ) / (1)^2 → -4 *13.6 = -54.4 eV. Then, when it goes to n=2, the energy is -4 *13.6 * (1/4) = -13.6 eV. So the energy required to go from n=1 to n=2 is (E_n1 - E_n2)= (-54.4) - (-13.6) )= -40.8 eV. The negative signifies emission, so the energy required (ionization) is 40.8 eV. So again, 40.8 eV.

But the options don't have that. So the only option near that is E:40.581 eV. Hmm. So perhaps there's a miscalculation in the problem, or I'm not getting the correct approach.

Wait, maybe I should approach it differently. Another way: the Rydberg formula for the second ionization energy of He.

The hydrogen-like formula is E = - (R_H * Z²) / n². So for the second ionization, E_He²+ to E_He³+.

E_He²+ is E_n=1: - (4 *13.6 ) /1² = -54.4 eV.

E_He³+ is E_n=2: - (4 *13.6 ) /4 = -13.6 eV.

The energy required is the difference between E_He³+ and E_He²+ → (-13.6) - (-54.4) ) =40.8 eV.

So that's 40.8 eV. But the options don't have that. So perhaps I made a mistake in the formula's setup.

Wait, perhaps the formula given is not accounting for the fact that the second ionization energy is the energy to remove an electron from He+ (a He²+ ion), which is He⁺ → He²+ + e⁻. So the energy for this step is the same as the energy difference between He+ (n=1) and He²+ (n=2).

Wait, but He+ has Z=2, so the energy levels would be E_n = - (4 *13.6) /n².

So when n=1: -54.4 eV.

n=2: -13.6 eV.

The energy change is (E_n=2 - E_n=1) = (-13.6) - (-54.4) )=40.8 eV.

So again, same result.

But the given options don't have this. So perhaps the problem wants the energy to go from n=1 to n=2 for He.

Wait, perhaps the formula in the problem is not exactly the same. Let me check the formula again.

The given formula is υ = Z² R_H [1/n₁² -1/n₂²]. So for the transition from n₁=1 to n₂=2, Z=2.

So υ = (2)^2 *13.6 [1/1^2 -1/2^2] =4 *13.6 [1-0.25] =4 *13.6 *0.75 =4 * 10.2=40.8 eV.

Wait, 13.6 * 0.75 is 10.2. 10.2 *4 is 40.8.

So the second ionization energy is 40.8 eV, which isn't an option. So perhaps the options are rounded or I'm missing a key point.

Wait, perhaps I should compute it using the Rydberg formula, which would be the energy difference between two levels.

The Rydberg formula for energy levels is E_n = - (R_H * Z²)/n².

So for He²+, the energy levels are E_n = - (4 *13.6)/n².

So E_1 = -54.4 eV, E_2 = -13.6 eV.

ΔE = E_2 - E_1 = (-13.6) - (-54.4) )=40.8 eV.

Same result. So perhaps the options have a typo or I'm not considering something.

Wait, looking at the options again:

E is 40.581 eV. Hmm, 40.581 is 40.581, which is approximately 40.581.

Wait, 40.581 is 40.581. So how do I get 40.581 from the formula?

Wait, perhaps the Rydberg constant used is the same as in the formula, but I think I got it right.

Wait, perhaps I should compute using the Rydberg formula correctly. Let me compute it for the second ionization energy.

The formula for the energy emitted is the difference between two energy levels. For He²+, when it ionizes to He³+.

Wait, no. Wait, He+ is He⁺, which is He neutral with one electron lost. So He+ has Z=2, and it's in the ground state (n=1). When it loses another electron to become He²+, it's in n=2.

So the energy released is E = E_He+ to E_He²+.

E_He+ = - (4 *13.6)/1 = -54.4 eV.

E_He²+ = - (4 *13.6)/4 = -13.6 eV.

So the energy difference is E_He²+ - E_He+ = (-13.6) - (-54.4) )=40.8 eV.

So that's the energy required to remove another electron, which is the second ionization energy.

But the options don't have 40.8. So perhaps I made a mistake in the formula. Let me try to compute using the formula given.

Formula: υ = Z² R_H [1/n₁² - 1/n₂²]. For the transition to He²+ from He⁺ (n=1 to n=2), so Z=2, n₁=1, n₂=2.

Calculating: 4 *13.6 * (1 - 0.25) =4 *13.6 *0.75.

Compute 13.6 *0.75: 13.6 * 0.75 is 10.2.

So 4 *10.2 =40.8 eV.

Hmm. So again, the same result.

So perhaps the given options are incorrect, or I'm misunderstanding the question.

Wait, looking back at the options, perhaps option E is 40.581 eV, which is 40.581, which is 40.581 eV. So perhaps I should compute using a different approach.

Wait, another approach: the ionization energy of a He atom (He²+) is given by the energy required to ionize He from He+.

The energy to remove an electron from He+ (n=1) is E_He+ = - (4 *13.6)/1 = -54.4 eV.

The energy to remove an electron from He²+ (n=2) is E_He²+ = - (4 *13.6)/4 = -13.6 eV.

So the energy required is the difference between these two:

E_He²+ - E_He+ = (-13.6) - (-54.4) )=40.8 eV.

So that leads to the same result.

But the options don't have 40.8. So perhaps the correct answer is not here, but I have to choose from the options. Alternatively, perhaps I made a miscalculation.

Wait, perhaps the Rydberg formula is actually given as E_n = - (R_H * Z²) / n², and the energy difference is calculated as E_n for n=2 minus E_n for n=1.

Wait, I think I'm stuck. Maybe I should look for another approach.

Wait, perhaps the second ionization energy of He is the same as the energy required to remove an electron from He⁺, which is He⁺ → He²+. So the energy for this is the difference between the energy levels of He⁺ and He²+.

E_He⁺ is (Z^2 R_H) / (1^2) ) = (4 *13.6) =54.4 eV.

E_He²+ is (4 *13.6 ) / (2^2) ) =13.6 eV.

The energy required to remove an electron would be E_He²+ - E_He⁺) =13.6 -54.4 =-40.8 eV. So the ionization energy is 40.8 eV.

Hmm. So again, same result.

But the options don't have that. So perhaps the correct answer is not among the options, but the closest is option E:40.581 eV. But why? Because maybe I'm missing a factor in the formula.

Wait, perhaps the formula should be υ = Z² R_H [1/n₁² - 1/n₂²], but in the calculation, n₁ is the initial state, and n₂ is the final state.

Wait, let me try again with the Rydberg formula approach.

The Rydberg formula for emission is E = E_n1 - E_n2 = - (R_H Z² / n1² ) + (R_H Z² / n2² ) = R_H Z² [ 1/(n2²) - 1/(n1²) ) ].

So for the transition from n=1 to n=2 in He⁺, Z=2, so:

E = R_H * (2)^2 [1/(2)^2 - 1/(1)^2 ] = 4 *13.6 [1/4 -1 ] = 54.4 [ (0.25 -1) ] =54.4 [ -0.75 ] = -40.8 eV.

But wait, the formula for energy is E = E_n1 - E_n2. So the energy emitted is 40.8 eV, which is the ionization energy.

But since the options don't have this, perhaps I should check the options again. Alternatively, perhaps the formula is given as υ = Z² R_H (1/(n₁²) -1/(n₂²)), so the energy is 3 * R_H.

Wait, no, that's not correct.

Wait, perhaps I'm making a mistake in the formula. Let me re-express the formula.

The formula given is υ = Z² R_H [1/n₁² - 1/n₂²].

So for the transition from n₁=1 to n₂=2, the energy is:

υ = (2)^2 *13.6 [1/1^2 -1/2^2] =4 *13.6 [1 -0.25] =4 *13.6 *0.75.

13.6 *0.75 is 10.2. 10.2 *4 is 40.8.

Hmm.

Wait, perhaps the question is about the ionization energy of the neutral He atom, not He++. So He is He⁺, so Z=2. But He is neutral. So He⁺ is He with one nucleus positive.

Wait, no, helium is He⁺ with positive charge. So for the second ionization energy of He, which is He⁺, it's the energy to remove another electron.

Wait, the ionization energy for He⁺ (n=1) to He²+ (n=2): E = Z² R_H [1/1² -1/2² ] =4 *13.6 [1 -0.25] =4 *13.6 *0.75 =40.8 eV.

So again, same result.

So the only conclusion is that the correct answer is not listed, but the closest option is E:40.581 eV. But that's why I'm confused. Alternatively, perhaps I made a mistake in the formula.

Wait, perhaps the formula should have been υ = (Z² R_H) [1/(n₁²) - 1/(n₂²)].

Wait, that's the same as before.

Alternatively, perhaps I should compute the Rydberg energy as 13.6 eV, which is for hydrogen, and the ionization energy for He is 2 * 2 *13.6 =54.4 eV. But that's for the first ionization, which is He → He+.

Wait, no. The first ionization energy is the energy required to remove an electron from He, which is 13.6 *2 =27.2 eV.

The second ionization energy is the energy to remove an electron from He+ (which is He⁺), which is approximately 54.4 eV.

Wait, but that's the first ionization energy. Wait, no, that's the second. Wait, let me think again.

The first ionization energy for He is 13.6 *2 =27.2 eV.

The second ionization energy of He is the energy required to remove an electron from He+, which is 13.6 *2 =27.2 eV. Wait, no, that can't be correct. Wait, He⁺ has a charge of +1, so its energy levels are E_n = -13.6 eV /n².

Wait, no, the Rydberg constant for hydrogen is 13.6 eV, and for He+, which is Z=1, the Rydberg constant is same, so E_n = -13.6 eV /n².

So the first ionization energy for He is 13.6 eV (energy to ionize He to He+).

The second ionization energy is the energy to ionize He+ to He²+. For He+ (Z=1), E_n = -13.6 eV /n².

So, to ionize He+ to He²+, we have to go from n=1 to n=2.

The energy difference is E_He+ to E_He²+.

E_He+ = -13.6 eV.

E_He²+ = -(13.6 eV)/(2^2) )= -13.6 eV /4 =-3.4 eV.

Wait, that can't be. Wait, let me compute it correctly.

E_He+ (n=1) = -13.6 eV.

E_He²+ (n=2) = - (13.6 eV)/(4) )= -3.4 eV.

So the energy required to remove an electron from He+ to He²+ is E_He²+ - E_He+ = (-3.4 eV) - (-13.6 eV) )= 10.2 eV.

Wait, that's 10.2 eV, but that's the ionization energy for He²+ from He+.

Wait, but the second ionization energy of He is the energy to remove an electron from He+ to He²+.

So the energy is 10.2 eV.

Wait, 10.2 is approximately 10.2 eV. But the options don't have this either.

So this is getting me even more confused.

Wait, perhaps I'm making a mistake in the formula. Let me check the formula again.

The formula given is υ = Z² R_H [1/n₁² - 1/n₂²].

So for the transition from n=1 to n=2, Z=2.

Then, υ = (2)^2 *13.6 [1/(1)^2 - 1/(2)^2 ] =4 *13.6 [1 -0.25 ] =4 *13.6 *0.75.

Which is 4 *10.2=40.8 eV.

Hmm.

Wait, I'm starting to think that the correct answer is 40.8 eV, which isn't among the options. But I have to choose from the given options.

Alternatively, perhaps I should compute the energy using the Rydberg formula.

The Rydberg formula is 1/λ = R_H [1/n₁² -1/n₂²} ].

But I'm getting mixed up between energy and wavelength.

Wait, the energy E is related to wavelength λ by E = hc/λ.

In the Rydberg formula, 1/λ = R_H [1/n₁² -1/n₂²} ] * hc/(λ)^2.

Wait, perhaps this is getting too complicated.

Alternatively, perhaps I should accept that the correct answer is not listed and choose the closest option, but that's not ideal.

Wait, perhaps I should go back to the question.

Question: What is the second ionization energy of a neutral helium atom?

Given options: E is 40.581 eV.

Wait, perhaps the formula is given differently. Let me think.

Wait, perhaps the formula is written as υ = Z² R_H [1/n₁² - 1/n₂²} ].

But for the transition from n=1 to n=2, Z=2.

Thus, [1/1^2 -1/2^2}] → [1 -0.25] → 0.75.

So υ = 4 *13.6 *0.75 =4*10.2=40.8 eV.

Hmm. Again, same result.

So perhaps the correct answer is not present, but given that the options have E as 40.581, which is less than 40.8, perhaps that's a miscalculation.

Wait, perhaps I should compute 4 *13.6 * (3/4) → 13.6 *3 is 40.8.

Yes, because 4 * 3/4 is 3. So 13.6 *3 =40.8.

So perhaps the correct calculation is 40.8 eV, which is not present, but the closest option is E:40.581 eV. So perhaps it's a typo or mistake.

In conclusion, I think the correct answer should be 40.8 eV, but since it's not an option, perhaps the intended answer is E:40.581 eV, but I'm not confident in that conclusion.
</think>

The question asks for the second ionization energy of a neutral helium atom, but the provided options do not include the correct value. Using the formula for ionization energy:

\[
\Delta E = Z^2 R_H \left( \frac{1}{n_1^2} - \frac{1}{n_2^2} \right)
\]

For the transition from \( n_1 = 1 \) to \( n_2 = 2 \) with \( Z = 2 \) (Helium⁺):

\[
\Delta E = 2^2 \cdot 13.6 \left( \frac{1}{1^2} - \frac{1}{2^2} \right) = 4 \cdot 13.6 \cdot \left( 1 - 0.25 \right) = 4 \cdot 13.6 \cdot 0.75
\]

\[
\Delta E = 4 \cdot 10.2 = 40.8 \, \text{eV}
\]

This calculation shows the second ionization energy should be 40.8 eV. However, since this value is not among the provided options, there is likely a typo or error in the question. The closest option is E: 40.581 eV, but this does not match the correct calculation. Therefore, the correct answer should be 40.8 eV, but it is not listed.

ANSWER: E