Answer the following multiple choice question, selecting from the answer A through to J. After thinking, reply directly with your answer. 

The last character of your response must be the letter you have chosen.

Question:

Nickel (Z = 28, A = 59) has a first ionization energy of 737 kJ/mol and a boiling point of 2913 °C, while Pt (Z = 78, A = 195) has a first ionization energy of 870 kJ/mol and a boiling point of 3825 °C. Which of the following are the most reasonable values of ionization energy and boiling point for palladium?

Options:

A: 812 kJ/mol and 3100 °C
B: 880 kJ/mol and 3600 °C
C: 830 kJ/mol and 2700 °C
D: 900 kJ/mol and 3000 °C
E: 932 kJ/mol and 3416 °C
F: 804 kJ/mol and 2963 °C
G: 795 kJ/mol and 2436 °C
H: 720 kJ/mol and 2800 °C
I: 750 kJ/mol and 3200 °C
J: -200 kJ/mol and 3524 °C

Answer:
    <think>
<think>
Okay, so I have this question about the first ionization energy and boiling points of different elements. I'm a bit rusty on my chemistry, but I'll try to think it through.

The question is about palladium. Hmm, wait, I remember that ionization energy is the energy required to remove an electron from an atom. So the first ionization energy (IE1) is the energy needed for the most tightly bound electron. 

Looking at the data given: Nickel (Ni) has a IE1 of 737 kJ/mol and a boiling point of 2913°C. Platinum (Pt) has an IE1 of 870 kJ/mol and a boiling point of 3825°C. And Palladium (Pd) is in the middle of these two in terms of atomic number and chemical reactivity. 

Wait, Nickel and Platinum are both post-transition metals. So their IE1s are in the 700-900 range. Palladium is before Pt in the periodic table. Oh, right, the periodic table has the order: K < Ca < ... < Sc > Si < ... < Pd < Pt < ... < Ag < Au < Hg < Pt < Ptl. So Pd comes after Si and before Pt.

So, I think about the trend in first ionization energy. As we move across a period from left to right, ionization energy generally decreases because the atomic radius is getting smaller, and the electrons are more tightly held. Wait, but wait, isn't it the opposite? Oh wait, no, wait. On the periodic table, when you move across a period from left to right, the first ionization energy generally increases. Because as you go right, the atoms are getting smaller and the electrons are in lower energy levels. So the first ionization energy increases because you're removing a higher energy electron.

Wait, but wait again. Let me think: For example, I know that as you go from left to right across a period, the first ionization energy increases. So for example, the IE1 of O is lower than that of F. Because F is more electronegative and the electron is more tightly held. O has a higher IE1 because it's the first to lose an electron (O is less electronegative than F, so requires more energy). 

So, moving from left to right, IE1 increases. Nickel is to the left of Pd on the periodic table. So IE1 for Pd should be higher than Ni. Nickel has 737 kJ/mol, so Pd should have a higher value. Looking at the options, let's see:

Options for Pd:

A: 812 (higher than Ni's 737)
B: 880 (higher)
C: 830 (higher than Ni)
D: 900 (higher)
E: 932 (higher)
F: 804 (slightly higher than Ni)
G:795 (lower than Ni)
H:720 (much lower)
I:750 (lower than Ni)
J: -200 (Negative, which doesn't make sense for IE1)

So IE1 of Pd should be higher than 737 kJ/mol. So looking at the options, A, B, C, D, E, F. But I also need to think about boiling points. 

Boiling point is the temperature at which a substance turns from liquid to gas. Higher boiling points indicate stronger intermolecular forces, which usually come from having more atoms or electrons. For transition metals, the strength of the metallic bond or the van der Waals forces increases, leading to higher boiling points.

Nickel has a boiling point of 2913°C, Pt is 3825°C. So Pt is higher. Pd is between them. I know that the boiling points of post-transition metals increase as you go down the group in the d-block. Wait, wait no. Wait, in the d-block, moving down increases the atomic size, which reduces the strength of intermolecular forces. For example, the boiling point of elements like O is low, F is even lower. But in some cases, like transition metals, moving down can increase boiling point because they have more atoms contributing to intermolecular forces.

Wait, wait, I think I'm getting a bit confused. Let me think: metals generally have higher boiling points than nonmetals. So for transition metals, the higher the position in the d-block (lower period), the higher the boiling point. Wait, no, that's not right. For example, O is a nonmetal, but it's a gas at room temp (like 150°C). F is a gas but even lower. Then, in the d-block, like V (Vanadium) has a boiling point of around 1800°C. Then, Cr is 1838, Mn is 1805, Fe is 1897, Co is 1905, Ni is 2860 (wait, no, that can't be right. Maybe I'm mixing up elements. Alternatively, perhaps the boiling points of the d-block elements (transition metals) increase as you go down the group. So, for example, the boiling points of transition metals generally increase as you go from top to bottom in the same group.

Wait, let me think about some specific elements. Let's take some transition metals:

Vanadium (V) has a boiling point of about 1700°C?

Wait, wait, I'm not exactly sure. Maybe I should think in terms of other data.

Wait, in the question, Pd is between Ni and Pt. So, for their boiling points, nickel is about 2913°C, Pt is about 3825°C. So, Pd's boiling point is between these two. So, Ni< Pd < Pt.

So, what's the trend of boiling points for transition metals? I think the boiling points increase as you go down the group. For example, in the d-block, moving from left to right, the boiling points increase. So, if nickel is higher up, and Pt is lower, then Pd would be higher than Ni but lower than Pt.

Wait, but wait, the actual boiling points of metal elements can vary. For example, O is a nonmetal, but the boiling point of its group is lower. However, transition metals have higher boiling points as you go down the group.

So, the boiling point of Pd is higher than Ni (2913), and lower than Pt (3825). So, Pd's BP is around 3300-3500, perhaps?

Looking at the options:

A: 3100
B:3600
C:2700
D:3000
E:3416
F:2963
G:2436
H:720
I:750
J: negative (unlikely, since Pd's IE1 is positive)

So the options for boiling point are A:3100, B:3600, D:3000, E:3416, F:2963. 

Wait, but F is 2963 which is below Ni's 2913. Since Pd is after Ni towards Pt, its BP should be higher than Ni and lower than Pt. So the possible options are A (3100), D (3000), E (3416), but not F (2963, same as Ni).

Wait, but wait, the BP of Pt is 3825. So Pd's BP is somewhere between 2913 and 3825. So, looking at the options, the candidates are A (3100), D (3000), E (3416), but F is 2963 which is less than Ni's. So F is lower than Ni, which can't be, as it's a transition metal.

Wait, but wait, the boiling points: nickel is about 2913°C, Pt is 3825. So Pd is between, so the options for Pd's BP are 3100, 3000, 3416, etc.

So for the boiling points, the options are A (3100), D (3000), and E (3416). So, which of these is more reasonable?

Now, the question is about the 'most reasonable' values.

Looking at the options, the Pd's first ionization energy should be higher than Ni's. So the options for IE1 are A, B, C, D, E.

Looking at the given IE1: Nickel is 737, Pt 870. So Pd's IE1 should be higher than 737 but less than 870.

Looking at the options for Pd's IE1:

A: 812
B:880
C:830
D:900
E:932
F:795 (lower than Ni's, so unlikely)

So the only options where IE1 is higher than 737 are A, B, C, D, E.

So from these, which is the most reasonable. What's known about the IE1 of Pd?

I remember that the first ionization energy of palladium is approximately 880 kJ/mol. Wait, but I'm not entirely sure. Let me think: Nickel's IE1 is 737, Pt is 870. So Pd's should be higher than Ni but lower than Pt.

So 880 is between 737 and 870, but wait, Pt's is 870, so higher than Ni's but lower than Pt's. So 880 is higher than Ni's (737) and lower than Pt's (870). So that's correct.

So the IE1 for Pd would be around 880 kJ/mol. Looking at the options, option B is 880. So that's a strong candidate.

Now, the boiling point. The options are A (3100), D (3000), E (3416). Which of these is correct?

I think the boiling points for transition metals generally increase down the group. So, moving from Ni to Pt, the BP increases. So, the BP of Pd should be higher than Ni but lower than Pt.

So, the BP options are A (3100), D (3000), E (3416). Wait, but 3100 and 3000 are both higher than Ni's 2913 and lower than Pt's 3825.

Wait, but which is more accurate? Do I know the BP of Pd?

Alternatively, I can think about the general trend. The boiling point of Pd is about 3416°C, which is option E. Or is it 3416? Wait, looking at the options:

Option E: 3416°C. Option A:3100, D:3000, E:3416.

Wait, but I thought that the boiling points of metal atoms increase as you go down the group. So, Pd is after Ni in the same group, so its BP should be higher than Ni. Pt is in a higher group, so its BP is higher than Pd.

Wait, perhaps I got the group order wrong. Let me think about the position. Nickel is in group 14, Pt is also group 14. So, no, they are in the same group. So, moving down the group, the BP increases.

So, in group 14, the BP of the elements increases as you go down. So, the order is: O (150), F (200), Ne (21), Mg (722), Al (1080), Si (190), P (1500), S (192), Cl (120), Ar (26), K (125.5), Ca (291), Sr (204), Y (29), Zr (38), Nb (27), Mo (39), Tc (24), Rh (46), Ir (191), Pt (39), Au (190), Hg (238), Pt (39?), Au (190?), Hg (238?), Au is around 190?), but wait, I'm not certain about all the exact values.

Wait, I'm a bit fuzzy on the exact boiling points. Let me think about some more elements. For example, B has a high boiling point, but it's a nonmetal. For transition metals, the BP increases as you go down the group. So, for group 14, the order is: O < F < Mg < Al < Si < P < S < Cl < Ar < K < Ca < Sr < Y < Zr < Nb < Mo < Tc < Rh < Ir < Pt < Pt (but wait, after Pt comes Au, which is at higher BP than Pt). Wait, no, I think after Pt comes Au, which has a BP of around 190, which is higher than Pt's 39. Wait, that can't be because Pt is in group 14 and Au is also in group 14. So, perhaps I'm getting this wrong.

Alternatively, perhaps I should just look for the correct trend. Transition metals' boiling points increase down their group. So, for group 14 (like O, F, Mg, Al, Si, P, S, Cl), the BP goes from O (150), F (200), Mg (722), Al (1080), Si (190), P (1500), S (192), Cl (120?), wait that can't be right. Wait, Cl is a nonmetal and has a lower BP. So perhaps I'm mixing things up.

Wait, let me think again. For group 14: O is a nonmetal, so its BP is lower. F is a nonmetal, but BP is lower than Al. Mg is a metal, which has a higher BP. So, the order would be O < F < Mg (metal) < Al (metal) < Si (metal) < P (metal) < S (metal) < Cl (nonmetal). But in the case of group 14, the metals are O, F, Mg, Al, Si, P, S, Cl.

Wait, no, Cl is group 17. So group 14 is O (16), F (9), Mg (12), Al (13), Si (14), P (15), S (16), Cl (17). So, for the metals in this group, their BP increases.

So, Al (13) has BP 1080, Si (14) 190, P (15) 1500, S (16) 192, Cl (17) is a nonmetal, BP ~120 (which is lower than the metals). Wait, but Cl is group 17. So the metals in group 14 (O, F, Mg, Al, Si, P, S) have higher BP than nonmetals.

Wait, but that's getting complicated. So, if Pd is in group 14, its BP would be between that of the group's metals and the next group (group 16, which includes Si, P, S, etc. which have BP 190, 1500, 192, etc.).

Wait, perhaps the BP of Pd is around 3416°C, which is option E. But wait, that's way higher than what I remember for some metals. Or maybe I'm wrong. I think the BP of Pd is around 3416°C. So option E is that.

Alternatively, I might be thinking of another element. Let me think about another approach. If the first ionization energy of Pd is around 880 kJ/mol, which is higher than Ni's 737, and the boiling point is around 3416°C, which is the highest option given.

Wait, but looking at the options, option E is 3416°C. That's possible. So the Pd would have a boiling point around 3416, which is higher than Ni's 2913 and lower than Pt's 3825.

So, putting it all together: the IE1 is 880 (B), and the BP is 3416 (E).

But wait, let me double-check with the options given.

Looking at the options:

E: 932 kJ/mol and 3416°C.

Wait, but the given options for IE1 are:

A:812, B:880, C:830, D:900, E:932, F:795.

So, the IE1 of Pd is 880, which is B.

The BP is 3416, which is E.

So the correct answer would be E: 932 kJ/mol and 3416°C.

Wait, but the options have other possibilities. Let me see what other options are possible. Like option E is (932, 3416), which matches our reasoning. So the correct answer is E.
</think>

The question asks about the most reasonable values for the first ionization energy (IE1) and boiling point (BP) of palladium (Pd). The data provided includes:

- Nickel (Ni): IE1 = 737 kJ/mol; BP = 2913°C.
- Platinum (Pt): IE1 = 870 kJ/mol; BP = 3825°C.
- Other elements in the same group (group 14) show a trend where first ionization energy increases and boiling point increases as you move down the group.

### Analysis:
1. **First Ionization Energy (IE1):**
   - Nickel (Ni) has an IE1 of 737 kJ/mol.
   - Platinum (Pt) has an IE1 of 870 kJ/mol.
   - Pd, being between Ni and Pt in the group, should have an IE1 higher than Ni's 737 kJ/mol but lower than Pt's 870 kJ/mol.
   - Among the options, **B (880 kJ/mol)** is the only value that satisfies this condition.

2. **Boiling Point (BP):**
   - Nickel (Ni) has a BP of 2913°C.
   - Platinum (Pt) has a BP of 3825°C.
   - Pd, being between Ni and Pt in the group, should have a BP higher than Ni's 2913°C and lower than Pt's 3825°C.
   - Among the options, **E (3416°C)** is the only value that satisfies this condition.

### Conclusion:
The most reasonable values for Pd's IE1 and BP are **880 kJ/mol** and **3416°C**, respectively. These values align with the expected trends for transition metals in the same group.

ANSWER: E