Answer the following multiple choice question, selecting from the answer A through to J. After thinking, reply directly with your answer. 

The last character of your response must be the letter you have chosen.

Question:

The first ionization energy for a neutral atom of chlorine is 1.25 MJ/mol and the first ionization energy for a neutral atom of argon is 1.52 MJ/mol. How would the first ionization energy value for a neutral atom of potassum compare to those values?

Options:

A: It would be greater than both because the size of a potassium atom is smaller than an atom of either chlorine or argon.
B: It would be greater than both because the atomic radius of potassium is greater than that of either chlorine or argon.
C: It would be less than both because there are more electrons in potassium, meaning they repel each other more effectively and less energy is needed to remove one.
D: It would be less than chlorine but greater than argon because the atomic radius of potassium is smaller than that of argon but larger than that of chlorine.
E: It would be greater than chlorine but less than argon because the atomic number of potassium falls between those of chlorine and argon.
F: It would be greater than both because potassium carries a greater nuclear charge then either chlorine or argon.
G: It would be equal to that of argon because they belong to the same period in the periodic table.
H: It would be less than both because a valence electron of potassium is farther from the nucleus than one of either chlorine or argon.
I: It would be equal to that of chlorine because both are in the same group in the periodic table.
J: It would be less than both because potassium has fewer protons to attract electrons, making it easier to remove one.

Answer:
    <think>
<think>
Okay, so I'm trying to answer this multiple-choice question about ionization energies and the periodic table. Hmm, let me think through this step by step.

The question says that the first ionization energy of chlorine is 1.25 MJ/mol and argon is 1.52 MJ/mol. Now, the question is about the ionization energy of potassium compared to these two. Wait, wait, potassium is actually in a different group. Chlorine is group 17, argon is group 18, and potassium is group 1. So they belong to different periods. 

Wait a minute, the first ionization energy is about how much energy is needed to remove an electron from an atom. Higher ionization energy means it's harder to remove an electron. So if the ionization energy of chlorine is lower than argon, that suggests that removing an electron from Cl is easier than from Ar. Because higher energy is needed for Ar to lose an electron.

Wait, no, wait. Wait, higher ionization energy means that it's harder to remove the electron. So if the ionization energy of Cl is lower than Ar, that means Cl is easier to lose an electron. So Cl has a higher ionization than Ar? Wait, no, wait. Wait, no, ionization energy is the energy required to remove an electron. So if Cl's IE is 1.25 MJ/mol, and Ar's is 1.52, then Cl is easier to lose an electron than Ar. So Cl has a higher IE than Ar. That would mean, maybe, that the trend is that as you go across the periodic table, the ionization energy increases. So Cl is to the left of Ar, and Cl has higher IE.

Wait, but wait, K is in the same period as Ar but a lower period than Cl. Or wait, K is in period 3, Ar is period 4, Cl is period 3. So K is before Cl in the same period.

Wait, the ionization energy of K compared to Cl and Ar. Wait, the periodic trend for ionization energy. Let me recall: as you go down a group, ionization energy increases because each new period has more electrons and higher nuclear charge. Going across a period, it first increases, then decreases. Because atomic size decreases, so the attraction per electron increases.

So Chlorine is in period 3, group 17. Argon is period 4, group 18. Potassium is period 3, group 1. 

Wait, no, K is period 3, group 1. Cl is group 17, period 3. Ar is period 4.

So, which comes next: K is after Cl in the same period. So from Cl (group17) to K (group1) in the same period.

In a period, as you go down, ionization energy increases. So from Cl to K (same period, lower down), the IE increases. So K's IE should be higher than Cl's.

Wait, but the question is about K's IE compared to Cl and Ar. So Cl's IE is lower than Ar's. So Cl's IE is 1.25, Ar's is 1.52.

So K is in period 3, group 1. Cl is group 17, period 3. Ar is group 18, period4.

So, considering ionization energy trends:

In the same period, moving from top to bottom, ionization energy increases.

So Cl (group17, period3) has lower IE than K (group1, period3) and Ar (group18, period4). Wait, because Ar is higher in the group.

Wait, but Cl has lower IE than Ar. So, moving from Cl to Ar in the same period, IE increases. Because Ar has a higher nuclear charge than Cl. So as you go down a group, IE increases because the higher nuclear charge pulls electrons more tightly.

Wait, but K is in the same period as Cl, so its IE is higher than Cl's. Because going down the group, IE increases.

Wait, but wait, wait. Because the group is the same as Cl, moving from Cl to Ar is a group down. So K is in the same group as Ar? No, K is group 1, Ar group 18. So, from Cl (group17) to Ar (group18) is a downward group. So in a group, moving from lower to higher in the group: IE increases. So Cl has lower IE than Ar.

So, K is group 1, same period as Cl (3), but lower than Ar (4). So, in the same period, K is higher than Cl. Because in the same period, as you go down, IE increases.

So, K's IE should be higher than Cl's, which is higher than Ar's.

Wait, but the question is about K compared to Cl and Ar. So the first thing is, what is the IE of K compared to Cl?

Wait, but the question is to compare K's IE to Cl and Ar. So, K's IE should be higher than Cl's because in the same group, going down the IE increases.

Wait, no, wait, wait. Wait, no. Wait, in a group, moving from top to bottom, IE increases. So Cl is in a higher position in the group than Ar. So Cl has a lower IE than Ar.

So K is in the same group as Ar, but in a lower period. So the trend in period: same group, moving down increases IE.

So for group 17: K is above Cl (same group, lower period, but wait, K is group1, Cl is group17. Oh, maybe I'm getting that wrong. Wait, no, K is group 1, Ar is group18. Cl is group17. So K is in the same group as Ar, but lower period than Ar.

Wait, but when you move down a group, the IE increases. So Cl's IE is 1.25, Ar's is 1.52, so Cl has lower IE than Ar.

Now, K is in group1, period3. Cl is group17, period3. So from Cl (group17, period3) to K (group1, period3).

In a period, moving from top to bottom, IE increases. So K's IE is higher than Cl's.

Wait, but what about K compared to Ar? Because K is in period3, group1, Ar is group18, period4.

So, in the same group, Ar is higher than K. So moving from K (group1, period3) to Ar (group18, period4), which is higher in the group and higher in period.

In such a case, moving across a period, IE increases. So K's IE would be lower than Ar's.

Wait, but wait, group-wise: as you go down a group, IE increases. So Cl's (group17) IE is lower than Ar's (group18). So, K is in group1, period3. Ar is group18, period4.

So, in the same group, K is higher than Cl (since group1 is higher up, but in the same period, K is higher than Cl), but in terms of period, K is lower in the period than Ar.

So, in the same group, K's IE is higher than Cl's. So K's IE is higher than Cl's, which is higher than Ar's. So K's IE is greater than Cl's, which is greater than Ar's.

Wait, but the question is about K's IE compared to Cl and Ar.

The options are:

Option A: It would be greater than both because size of potassium is smaller than either Cl or Ar. Wait, I'm not sure about that. The size of K is smaller than Cl and Ar. So if size is smaller, the ionization energy would be higher because electrons are closer, so less energy is required to remove. So K would have a higher IE than Cl and Ar.

Wait, so option A says K would be greater than both. So according to that, the answer would be A.

But wait, the options say:

A: It would be greater than both because the size of a potassium atom is smaller than an atom of either chlorine or argon.

Wait, that makes sense. Because in a smaller atom, the electrons are closer, so the first ionization is easier (higher IE). So K's IE is higher than Cl and Ar.

So the correct answer would be A.

Wait, but why would K's IE be higher than Cl's?

Because Cl is in a higher period than K. Wait, no, Cl is period3, K is period3. So same period.

Wait, but same period, K is in a lower group than Cl. So group1 is above group17. So, if you move from group17 (Cl) to group1 (K) in the same period, the IE increases. So K's IE must be higher than Cl's.

So that's why option A is correct. Because K is smaller than both, so higher IE.

But wait, what about option D?

Option D says: It would be less than chlorine but greater than argon because atomic radius of potassium is smaller than that of argon but larger than that of chlorine.

Wait, wait, K's atomic radius is smaller than both Cl and Ar. So that would imply higher IE. So option A is correct, option D is incorrect.

But wait, the options: option D's reasoning is that K's radius is smaller than Cl but larger than Ar. So K is smaller than Cl. So in the same group, yes, K is smaller than Cl, so Cl has a higher IE than K. Wait, no. Wait, in a group, moving down, IE increases. So Cl is higher in the group than K. So Cl's IE is lower than K's.

Wait, K is group1, Cl group17. So K is in a lower group, but same period. So in the same period, K's IE is higher than Cl's. So K's IE is higher than Cl's.

So option A is correct because K is smaller than both, leading to higher IE.

But looking at the options, option D says it's less than Cl but greater than Ar because K's radius is smaller than Ar but larger than Cl. Wait, but K's radius is smaller than Ar. So if K is smaller than Ar, then Ar would have higher IE than K. So option D's reasoning is wrong. So option A is correct.

So the correct answer is option A.
</think>

The first ionization energy (IE) is the energy required to remove an electron from an atom. In general, ionization energy trends vary depending on the group and period of the element. In the same group, ionization energy increases as you move down the period due to the increasing nuclear charge. In the same period, ionization energy increases as you move down the group due to the increasing atomic size and effective nuclear charge.

For the given elements:  
- Chlorine (Cl) is in period 3, group 17, with an IE of 1.25 MJ/mol.  
- Argon (Ar) is in period 4, group 18, with an IE of 1.52 MJ/mol.  
- Potassium (K) is in period 3, group 1, with an IE that needs to be determined.  

### Analysis of K's IE relative to Cl and Ar:  
1. **Group-wise trend**:  
   Potassium (K) is in group 1, which is above chlorine (Cl) in the group but below argon (Ar). In a group, ionization energy increases as you move down. Therefore, K's IE should be greater than Cl's IE but less than Ar's IE.  

2. **Period-wise trend**:  
   K is in the same period (period 3) as Cl but below Ar. In a period, ionization energy increases as you move down. Thus, K's IE is greater than Cl's but less than Ar's.  

### Evaluation of Options:  
- **A**: Correct. Potassium's radius is smaller than both chlorine and argon, which implies a higher ionization energy due to the increased nuclear charge and effective attraction of electrons.  
- **B**: Incorrect. K's IE is not greater than both, as it is less than Ar's IE.  
- **C**: Incorrect. K's IE is not less than both, as it is greater than Cl's IE.  
- **D**: Incorrect. While K's radius is smaller than Ar, it is larger than Cl, which would result in a higher IE than Cl, contradicting this option.  
- **E**: Incorrect. K's IE is not less than Ar's, as it is greater.  
- **F**: Incorrect. K's IE is not greater than both, as it is less than Ar's.  
- **G**: Incorrect. Potassium is not in the same group as either chlorine or argon.  
- **H**: Incorrect. Potassium's IE is not less than both, as it is greater than Cl's.  
- **I**: Incorrect. Potassium's IE is not less than both, as it is greater than Cl's.  

### Conclusion:  
The correct answer is **A**, as potassium's smaller size leads to a higher ionization energy compared to both chlorine and argon.  

ANSWER: A