Answer the following multiple choice question, selecting from the answer A through to J. After thinking, reply directly with your answer. 

The last character of your response must be the letter you have chosen.

Question:

Nickel (Z = 28, A = 59) has a first ionization energy of 737 kJ/mol and a boiling point of 2913 °C, while Pt (Z = 78, A = 195) has a first ionization energy of 870 kJ/mol and a boiling point of 3825 °C. Which of the following are the most reasonable values of ionization energy and boiling point for palladium?

Options:

A: 812 kJ/mol and 3100 °C
B: 880 kJ/mol and 3600 °C
C: 830 kJ/mol and 2700 °C
D: 900 kJ/mol and 3000 °C
E: 932 kJ/mol and 3416 °C
F: 804 kJ/mol and 2963 °C
G: 795 kJ/mol and 2436 °C
H: 720 kJ/mol and 2800 °C
I: 750 kJ/mol and 3200 °C
J: -200 kJ/mol and 3524 °C

Answer:
    <think>
<think>
Okay, so I need to figure out the ionization energy and boiling point for palladium based on the given data for nickel and platinum. Let me start by recalling what I know about these elements.

Nickel has an atomic number Z=28, so it's in the same group as other transition metals. Platinum is Z=78, so it's much heavier and in a higher period. Palladium, I think, is also a transition metal and is in the same group as platinum. Let me confirm: Platinum is in group 10, so palladium should be too. Its atomic number is lower than platinum but higher than nickel? Wait, no, nickel is in group 10 as well? Hmm, wait, no, maybe I'm mixing things up.

Wait, nickel is actually in group 10. Platinum is also group 10. Palladium is in group 10 as well, but its position is after nickel. Let me check their positions. Nickel is in period 4, group 10. Palladium is period 5, same group. Platinum is period 6, same group. So all three are in group 10, periods 4,5,6.

Now, the problem gives me Nickel's first ionization energy as 737 kJ/mol, and a boiling point of 2913°C. Platinum has a higher ionization energy (870) and a much higher boiling point (3825°C). So as we go down the group, the ionization energy increases? Wait, nickel to platinum, yes, but wait, does ionization energy increase or decrease down a group? Hmm, I remember that generally, ionization energy decreases as you go down a group because the electrons are in higher shells and are farther from the nucleus, so it's easier to remove them. But wait, for transition metals, sometimes the trend isn't as straightforward because of d-electron effects.

Wait, for group 1 metals, ionization energy decreases down the group. But transition metals can have different trends because of their electron configurations. For example, in group 2, the trend isn't strictly decreasing because of full shells being more stable. So for group 10, let me think about their electron configurations.

Nickel (Z=28): the electron configuration is [Ar] 3d^8 4s^2. Palladium (Z=46): [Kr] 4d^10 5s^0? Wait, no, palladium actually has [Kr] 4d^10 5s^0. Wait, but wait, sometimes palladium is an exception because it doesn't fill the s orbital. So maybe its configuration is 4d^10 5s^0. Then Platinum (Z=78): I think it's 5d^9 6s^1, but sometimes there's exceptions. Wait, maybe I should look up their electron configurations, but since I can't, I'll proceed with what I remember.

So for ionization energy, in group 10, the trend isn't a simple increase or decrease. Nickel has lower IE than platinum, which is higher. So perhaps moving down the group, the IE increases, but not sure about palladium's exact position.

Wait, nickel is period 4, palladium period 5, platinum period 6. So from Ni to Pd to Pt, IE increases. So Ni is 737, Pt is 870. What about Pd? It's between them, so IE should be between 737 and 870. So the options must have an IE value in that range.

Looking at the options:

A: 812 (in range)
B: 880 (a bit above Pt)
C: 830
D: 900 (above Pt)
E: 932 (much higher)
F: 804
G: 795 (below Ni)
H:720 (below Ni)
I:750
J:-200 (impossible)

So the IE should be between 737 and 870. So options A, C, F, and I are in this range. Wait, wait, F is 804, which is above Ni's 737, so that's in range. I is 750, which is also in range. Let me list the options again:

Option A: 812, 3100°C
Option B: 880, 3600
Option C:830, 2700
Option D:900,3000
Option E:932,3416
Option F:804,2963
Option G:795,2436
Option H:720,2800
Option I:750,3200
Option J:-200, etc.

So the possible IE values are A, C, F, I.

Now, for boiling points. Nickel's BP is 2913°C, Pt's is 3825°C. So as we go down the group, BP increases. So Pd, being between Ni and Pt, should have a BP between 2913 and 3825. Let's see the options.

Looking at the BP in each option:

A:3100 → within range
B:3600
C:2700 → lower than Ni's
D:3000
E:3416
F:2963 → just above Ni
G:2436 → way below
H:2800 → below Ni
I:3200 → within range.

So options A, B, D, E, F, I have BPs in the range (above 2913). Wait, Ni's BP is 2913, so Pd's should be higher than that. So let's see:

Option A:3100 → higher than Ni, lower than Pt
Option B:3600 → higher than Pt, but maybe possible?
Option D:3000 → in range
Option E:3416 → in range
Option F:2963 → just above Ni
Option I:3200 → in range.

So for BP, the correct options would be A, B, D, E, F (wait, F is 2963 which is just 50°C above Ni's 2913. Is that realistic? It's possible, but maybe the BP increases more as we go down the group. So maybe F's BP is a bit low for Pd.

So combining both IE and BP:

We need IE between 737 and 870, and BP above 2913.

Possible options are:

A: IE=812, BP=3100 → possible
B: IE=880 (higher than Pt?), BP=3600
C: IE=830, BP=2700 → BP too low
D: IE=900 (higher than Pt), BP=3000
E: IE=932 (higher than Pt), BP=3416
F: IE=804, BP=2963 → BP just above Ni, but IE is in range
I: IE=750, BP=3200.

Now, considering that Pt has a higher IE than Ni, and Pd is between them. So Pd's IE should be between Ni's 737 and Pt's 870. So Ni < Pd < Pt in IE.

So, looking at the options:

Option A:812 → between 737 and 870 → yes
Option F:804 → yes
Option I:750 → yes
Options C and others are either below or above.

Wait, what about the trend in IE? Does Pd have higher or lower IE than Ni? Since Pt has higher than Ni, Pd should have higher than Ni but lower than Pt. So IE for Pd should be greater than 737 but less than 870.

In options, A:812, F:804, I:750. So all are in this range.

Now, the boiling point should be higher than Ni's (2913), so F's 2963 is just a bit higher, but perhaps that's a bit low considering Pd is in period 5, Pt in 6. So may be higher. But without exact data, it's tricky.

Alternatively, perhaps I should think about the periodic trends. For metals, generally, as you go down a group, the boiling point increases because the metallic bonds become stronger. So Pd should have higher BP than Ni, Pt higher than Pd. So BP order: Ni < Pd < Pt.

So, Ni's BP is 2913, Pt's is 3825. So Pd's should be in between. Let's look at the options:

Option A:3100 → in between
Option I:3200 → in between
Option E:3416 → closer to Pt, but possible
Option B:3600 → higher than Pt, which might be too much. Pt's BP is 3825, so 3600 is within possible range.

Wait, but Pt has higher atomic number and is in a higher period, so higher BP than Pd. So Pd's BP should be lower than Pt's 3825. So options with BP up to 3825 are possible, but B's 3600 is lower than Pt's 3825, so that's fine.

But the question is about Palladium. So what's the typical trend for group 10 elements? Let me think about the actual data.

Wait, I might not remember the exact values, but I can try to think logically. Nickel (period 4, group 10) has lower IE and BP than Platinum (period 6, group 10). So Palladium, in period 5, group 10, should have higher IE and BP than Nickel, but lower than Platinum.

So IE for Pd should be between 737 and 870. Similarly, BP should be between 2913 and 3825.

Looking again at the options that fit both criteria:

Option A: IE 812, BP 3100 → fits
Option F: IE 804, BP 2963 → BP just a bit higher than Ni, IE just a bit higher
Option I: IE 750, BP 3200 → IE lower than Ni? No, 750 is higher than 737, yes. So 750 is acceptable.

Wait, 750 is higher than 737, so that's okay.

Wait, what about the actual boiling point of Pd? I think Pd's boiling point is around 2963°C. Wait, that's exactly option F's BP. But I'm not sure. Alternatively, perhaps Pd's BP is higher than that.

Alternatively, maybe I should consider the trend in IE. For group 10, the IE increases from Ni to Pd to Pt. So in the options, which IE is in the correct order.

Option A: 812 → between Ni and Pt
Option F: 804 → also in between
Option I:750 → also in between.

So which one is more plausible? Let's think about the positions. Ni is period 4, Pd period 5, Pt period 6.

The first ionization energy increases as we go down the group because the effective nuclear charge increases, so each subsequent element has a higher IE. So Pd's IE should be higher than Ni's but lower than Pt's.

So all three options (A, F, I) fit. Now, considering the BP: which options have BP between 2913 and 3825.

Option A:3100 → within
Option F:2963 → just above Ni's 2913
Option I:3200 → within.

If I have to choose among them, perhaps F and I are more plausible. Let's think about where F and I's IE and BP fall.

Option F: IE 804, BP 2963. So IE slightly higher than Ni, BP just a bit higher. But since Pd is in the next period, maybe the IE should be a bit higher than just a small increase. Let me think about the IE trend: Ni (737), Pd (around 804?), Pt (870). Seems plausible.

Option I: IE 750, BP 3200. So higher BP, which would fit better if Pd's BP is significantly higher than Ni's.

Alternatively, perhaps I'm overcomplicating. Let me think of the actual values I might know. 

Wait, from what I remember, Pd has an ionization energy of about 804 kJ/mol. Oh, that's exactly option F's IE. And its boiling point is around 2963°C, which is option F's BP. 

So if that's the case, then option F is correct.

Wait, but I'm not 100% certain. Let me think again. Platinum has a higher IE than Pd, which fits because Pt is after Pd. So if Pd is 804, Pt is 870, that's correct.

As for boiling points, Pd's is lower than Pt's. So F's BP of 2963 is lower than Pt's 3825, which is correct.

Therefore, the correct answer should be option F: 804 kJ/mol and 2963 °C.
</think>

To determine the most reasonable values for palladium's first ionization energy (IE) and boiling point (BP), we analyze the trends in group 10 elements (Ni, Pd, Pt). Nickel (Z = 28) has an IE of 737 kJ/mol and a BP of 2913°C, while platinum (Z = 78) has an IE of 870 kJ/mol and a BP of 3825°C. Palladium (Z = 46) is in the same group, between nickel and platinum in the periodic table.

### Ionization Energy (IE)
- Generally, IE increases down a group due to increasing effective nuclear charge. For group 10, this trend holds: Ni < Pd < Pt.
- Nickel's IE is 737 kJ/mol, and platinum's is 870 kJ/mol. Therefore, palladium's IE should be between these two values.
- Among the options, the IE values that fall in this range are:
  - **A: 812 kJ/mol**
  - **C: 830 kJ/mol**
  - **F: 804 kJ/mol**
  - **I: 750 kJ/mol**

### Boiling Point (BP)
- Boiling point generally increases down a group due to stronger metallic bonding. Thus, palladium's BP should be higher than nickel's (2913°C) but lower than platinum's (3825°C).
- Among the options, the BP values that fall in this range are:
  - **A: 3100°C**
  - **B: 3600°C**
  - **D: 3000°C**
  - **E: 3416°C**
  - **F: 2963°C**
  - **I: 3200°C**

### Combining IE and BP
To find the best match, we need IE and BP values that are consistent with the trends:
1. **Option A (812 kJ/mol, 3100°C):** IE is within the expected range, and BP is higher than nickel's and lower than platinum's. This is plausible.
2. **Option C (830 kJ/mol, 2700°C):** While IE is reasonable, the BP is lower than nickel's, which contradicts the trend. Eliminated.
3. **Option F (804 kJ/mol, 2963°C):** IE is within the expected range, and BP is slightly higher than nickel's. This is plausible and aligns well with known values for palladium.
4. **Option I (750 kJ/mol, 3200°C):** IE is within the expected range, and BP is higher than nickel's. This is also plausible.

### Final Consideration
Palladium's actual IE is known to be approximately 804 kJ/mol, and its BP is approximately 2963°C. These values match **Option F** exactly. Therefore, **Option F** is the most reasonable choice.

ANSWER: F